<?xml version="1.0" encoding="UTF-8"?>

<!-- generated on dom 09 dic 2018 18:38:52 CST by SUMO gui Version 0.30.0
<?xml version="1.0" encoding="UTF-8"?>

<configuration xmlns:xsi="http://www.w3.org/2001/XMLSchema-instance" xsi:noNamespaceSchemaLocation="http://sumo.dlr.de/xsd/sumoConfiguration.xsd">

    <input>
        <net-file value="acosta_peds.net.xml"/>
        <route-files value="acosta.rou.xml,persontrips.rou.xml"/>
        <additional-files value="acosta_vtypes.add.xml,acosta_bus_stops.add.xml,acosta_tls2.add.xml"/>
    </input>

    <output>
        <tripinfo-output value="tripinfos.xml"/>
        <stop-output value="stops.xml"/>
    </output>

    <report>
        <log value="sumo_log.txt"/>
        <no-step-log value="true"/>
    </report>

    <gui_only>
        <gui-settings-file value="settings.gui.xml"/>
    </gui_only>

</configuration>
-->

<tripinfos xmlns:xsi="http://www.w3.org/2001/XMLSchema-instance" xsi:noNamespaceSchemaLocation="http://sumo.dlr.de/xsd/tripinfo_file.xsd">
    <personinfo id="8" depart="3.20">
        <walk arrival="59.00"/>
    </personinfo>
    <personinfo id="127" depart="50.80">
        <walk arrival="74.00"/>
    </personinfo>
    <tripinfo id="Pepoli_8_16" depart="27.00" departLane="210_1" departPos="0.00" departSpeed="0.00" departDelay="0.00" arrival="86.00" arrivalLane="134b_1" arrivalPos="157.47" arrivalSpeed="13.39" duration="59.00" routeLength="687.57" waitSteps="0" timeLoss="8.34" rerouteNo="0" devices="tripinfo_Pepoli_8_16" vType="passenger2b" speedFactor="1.00" vaporized=""/>
    <tripinfo id="Silvani_11_0" depart="0.00" departLane="203[0]_1" departPos="0.00" departSpeed="0.00" departDelay="0.00" arrival="88.00" arrivalLane="114_1" arrivalPos="692.01" arrivalSpeed="13.78" duration="88.00" routeLength="1109.50" waitSteps="0" timeLoss="7.05" rerouteNo="0" devices="tripinfo_Silvani_11_0" vType="passenger2a" speedFactor="1.00" vaporized=""/>
    <personinfo id="214" depart="85.60">
        <walk arrival="90.00"/>
    </personinfo>
    <tripinfo id="Pepoli_8_21" depart="36.00" departLane="210_1" departPos="0.00" departSpeed="0.00" departDelay="0.00" arrival="96.00" arrivalLane="134b_1" arrivalPos="157.47" arrivalSpeed="12.63" duration="60.00" routeLength="687.57" waitSteps="0" timeLoss="9.28" rerouteNo="0" devices="tripinfo_Pepoli_8_21" vType="passenger2b" speedFactor="1.00" vaporized=""/>
    <tripinfo id="Pepoli_8_23" depart="39.00" departLane="210_1" departPos="0.00" departSpeed="0.00" departDelay="0.00" arrival="99.00" arrivalLane="134b_1" arrivalPos="157.47" arrivalSpeed="12.78" duration="60.00" routeLength="687.57" waitSteps="0" timeLoss="9.35" rerouteNo="0" devices="tripinfo_Pepoli_8_23" vType="passenger2a" speedFactor="1.00" vaporized=""/>
    <tripinfo id="Togliatti_2_8" depart="11.00" departLane="85_1" departPos="0.00" departSpeed="0.00" departDelay="0.00" arrival="106.00" arrivalLane="77[1][1]_1" arrivalPos="462.81" arrivalSpeed="12.99" duration="95.00" routeLength="1140.91" waitSteps="0" timeLoss="11.38" rerouteNo="0" devices="tripinfo_Togliatti_2_8" vType="passenger1" speedFactor="1.00" vaporized=""/>
    <personinfo id="36" depart="14.40">
        <walk arrival="107.00"/>
    </personinfo>
    <personinfo id="167" depart="66.80">
        <walk arrival="107.00"/>
    </personinfo>
    <personinfo id="64" depart="25.60">
        <walk arrival="110.00"/>
    </personinfo>
    <tripinfo id="Costa_1_4" depart="15.00" departLane="78[0]_1" departPos="0.00" departSpeed="0.00" departDelay="5.00" arrival="113.00" arrivalLane="86_2" arrivalPos="320.48" arrivalSpeed="13.81" duration="98.00" routeLength="1165.75" waitSteps="0" timeLoss="11.43" rerouteNo="0" devices="tripinfo_Costa_1_4" vType="passenger3" speedFactor="1.00" vaporized=""/>
    <personinfo id="26" depart="10.40">
        <walk arrival="114.00"/>
    </personinfo>
    <tripinfo id="Costa_1_2" depart="9.00" departLane="78[0]_1" departPos="0.00" departSpeed="0.00" departDelay="4.00" arrival="114.00" arrivalLane="86_1" arrivalPos="320.48" arrivalSpeed="13.36" duration="105.00" routeLength="1165.75" waitSteps="3" timeLoss="18.70" rerouteNo="0" devices="tripinfo_Costa_1_2" vType="passenger1" speedFactor="1.00" vaporized=""/>
    <tripinfo id="Costa_12_0" depart="0.00" departLane="78[0]_1" departPos="0.00" departSpeed="0.00" departDelay="0.00" arrival="114.00" arrivalLane="136_1" arrivalPos="186.65" arrivalSpeed="13.80" duration="114.00" routeLength="1406.19" waitSteps="0" timeLoss="11.68" rerouteNo="0" devices="tripinfo_Costa_12_0" vType="passenger3" speedFactor="1.00" vaporized=""/>
    <tripinfo id="Audinot_7_0" depart="0.00" departLane="131_1" departPos="0.00" departSpeed="0.00" departDelay="0.00" arrival="123.00" arrivalLane="209_1" arrivalPos="392.51" arrivalSpeed="12.99" duration="123.00" routeLength="869.61" waitSteps="46" timeLoss="59.55" rerouteNo="0" devices="tripinfo_Audinot_7_0" vType="passenger4" speedFactor="1.00" vaporized=""/>
    <personinfo id="13" depart="5.20">
        <walk arrival="124.00"/>
    </personinfo>
    <tripinfo id="Costa_12_1" depart="5.00" departLane="78[0]_1" departPos="0.00" departSpeed="0.00" departDelay="3.00" arrival="125.00" arrivalLane="136_1" arrivalPos="186.65" arrivalSpeed="12.61" duration="120.00" routeLength="1406.19" waitSteps="0" timeLoss="17.14" rerouteNo="0" devices="tripinfo_Costa_12_1" vType="passenger1" speedFactor="1.00" vaporized=""/>
    <tripinfo id="Costa_12_3" depart="12.00" departLane="78[0]_1" departPos="0.00" departSpeed="0.00" departDelay="5.00" arrival="127.00" arrivalLane="136_1" arrivalPos="186.65" arrivalSpeed="13.44" duration="115.00" routeLength="1406.19" waitSteps="0" timeLoss="12.72" rerouteNo="0" devices="tripinfo_Costa_12_3" vType="passenger1" speedFactor="1.00" vaporized=""/>
    <tripinfo id="Costa_3_21" depart="57.00" departLane="78[0]_1" departPos="0.00" departSpeed="0.00" departDelay="3.00" arrival="129.00" arrivalLane="14_1" arrivalPos="85.59" arrivalSpeed="13.56" duration="72.00" routeLength="845.28" waitSteps="0" timeLoss="10.78" rerouteNo="0" devices="tripinfo_Costa_3_21" vType="passenger3" speedFactor="1.00" vaporized=""/>
    <tripinfo id="Costa_12_7" depart="20.00" departLane="78[0]_1" departPos="0.00" departSpeed="0.00" departDelay="2.00" arrival="138.00" arrivalLane="136_1" arrivalPos="186.65" arrivalSpeed="13.53" duration="118.00" routeLength="1406.19" waitSteps="0" timeLoss="15.12" rerouteNo="0" devices="tripinfo_Costa_12_7" vType="passenger1" speedFactor="1.00" vaporized=""/>
    <tripinfo id="bus_81.0" depart="4.00" departLane="55_1" departPos="12.10" departSpeed="0.00" departDelay="4.00" arrival="140.00" arrivalLane="114_1" arrivalPos="693.01" arrivalSpeed="13.22" duration="136.00" routeLength="1048.73" waitSteps="32" timeLoss="58.07" rerouteNo="0" devices="tripinfo_bus_81.0" vType="bus" speedFactor="1.00" vaporized=""/>
    <personinfo id="132" depart="52.80">
        <walk arrival="142.00"/>
    </personinfo>
    <tripinfo id="Costa_12_9" depart="26.00" departLane="78[0]_1" departPos="0.00" departSpeed="0.00" departDelay="3.00" arrival="142.00" arrivalLane="136_1" arrivalPos="186.65" arrivalSpeed="13.44" duration="116.00" routeLength="1406.19" waitSteps="0" timeLoss="13.27" rerouteNo="0" devices="tripinfo_Costa_12_9" vType="passenger4" speedFactor="1.00" vaporized=""/>
    <personinfo id="337" depart="134.80">
        <walk arrival="145.00"/>
    </personinfo>
    <tripinfo id="Costa_12_11" depart="28.00" departLane="78[0]_1" departPos="0.00" departSpeed="0.00" departDelay="0.00" arrival="147.00" arrivalLane="136_1" arrivalPos="186.65" arrivalSpeed="13.78" duration="119.00" routeLength="1406.19" waitSteps="0" timeLoss="16.19" rerouteNo="0" devices="tripinfo_Costa_12_11" vType="passenger1" speedFactor="1.00" vaporized=""/>
    <tripinfo id="bus_91.0" depart="8.00" departLane="55_1" departPos="12.10" departSpeed="0.00" departDelay="8.00" arrival="149.00" arrivalLane="114_1" arrivalPos="693.01" arrivalSpeed="13.42" duration="141.00" routeLength="1048.73" waitSteps="26" timeLoss="62.48" rerouteNo="0" devices="tripinfo_bus_91.0" vType="bus" speedFactor="1.00" vaporized=""/>
    <tripinfo id="Turati_3_2" depart="69.00" departLane="195_1" departPos="0.00" departSpeed="0.00" departDelay="0.00" arrival="151.00" arrivalLane="14_1" arrivalPos="85.59" arrivalSpeed="13.48" duration="82.00" routeLength="939.78" waitSteps="0" timeLoss="12.81" rerouteNo="0" devices="tripinfo_Turati_3_2" vType="ignoring5" speedFactor="1.00" vaporized=""/>
    <personinfo id="301" depart="120.40">
        <walk arrival="152.00"/>
    </personinfo>
    <tripinfo id="Pepoli_8_25" depart="42.00" departLane="210_1" departPos="0.00" departSpeed="0.00" departDelay="0.00" arrival="152.00" arrivalLane="134b_1" arrivalPos="157.47" arrivalSpeed="13.24" duration="110.00" routeLength="687.57" waitSteps="46" timeLoss="59.26" rerouteNo="0" devices="tripinfo_Pepoli_8_25" vType="passenger4" speedFactor="1.00" vaporized=""/>
    <tripinfo id="Pepoli_8_28" depart="48.00" departLane="210_1" departPos="0.00" departSpeed="0.00" departDelay="0.00" arrival="154.00" arrivalLane="134b_1" arrivalPos="157.47" arrivalSpeed="13.03" duration="106.00" routeLength="687.57" waitSteps="42" timeLoss="55.91" rerouteNo="0" devices="tripinfo_Pepoli_8_28" vType="passenger2b" speedFactor="1.00" vaporized=""/>
    <tripinfo id="Togliatti_12_15" depart="21.00" departLane="85_3" departPos="0.00" departSpeed="0.00" departDelay="0.00" arrival="154.00" arrivalLane="136_1" arrivalPos="186.65" arrivalSpeed="13.76" duration="133.00" routeLength="887.62" waitSteps="52" timeLoss="67.19" rerouteNo="0" devices="tripinfo_Togliatti_12_15" vType="passenger2b" speedFactor="1.00" vaporized=""/>
    <tripinfo id="Togliatti_12_24" depart="34.00" departLane="85_3" departPos="0.00" departSpeed="0.00" departDelay="0.00" arrival="157.00" arrivalLane="136_1" arrivalPos="186.65" arrivalSpeed="13.84" duration="123.00" routeLength="887.62" waitSteps="42" timeLoss="57.43" rerouteNo="0" devices="tripinfo_Togliatti_12_24" vType="passenger3" speedFactor="1.00" vaporized=""/>
    <tripinfo id="Pepoli_3_0" depart="0.00" departLane="210_3" departPos="0.00" departSpeed="0.00" departDelay="0.00" arrival="158.00" arrivalLane="14_1" arrivalPos="85.59" arrivalSpeed="13.86" duration="158.00" routeLength="1929.65" waitSteps="0" timeLoss="17.41" rerouteNo="0" devices="tripinfo_Pepoli_3_0" vType="ignoring1" speedFactor="1.00" vaporized=""/>
    <tripinfo id="Togliatti_12_48" depart="68.00" departLane="85_3" departPos="0.00" departSpeed="0.00" departDelay="0.00" arrival="159.00" arrivalLane="136_1" arrivalPos="186.65" arrivalSpeed="12.69" duration="91.00" routeLength="887.62" waitSteps="9" timeLoss="25.30" rerouteNo="0" devices="tripinfo_Togliatti_12_48" vType="passenger2a" speedFactor="1.00" vaporized=""/>
    <tripinfo id="bus_13.0" depart="0.00" departLane="55_1" departPos="12.10" departSpeed="0.00" departDelay="0.00" arrival="160.00" arrivalLane="114_1" arrivalPos="693.01" arrivalSpeed="12.84" duration="160.00" routeLength="1048.73" waitSteps="39" timeLoss="61.00" rerouteNo="0" devices="tripinfo_bus_13.0" vType="bus" speedFactor="1.00" vaporized=""/>
    <tripinfo id="Pepoli_3_2" depart="3.00" departLane="210_3" departPos="0.00" departSpeed="0.00" departDelay="0.00" arrival="161.00" arrivalLane="14_1" arrivalPos="85.59" arrivalSpeed="13.58" duration="158.00" routeLength="1929.65" waitSteps="0" timeLoss="17.27" rerouteNo="0" devices="tripinfo_Pepoli_3_2" vType="ignoring1" speedFactor="1.00" vaporized=""/>
    <tripinfo id="Togliatti_12_59" depart="84.00" departLane="85_3" departPos="0.00" departSpeed="0.00" departDelay="0.00" arrival="161.00" arrivalLane="136_1" arrivalPos="186.65" arrivalSpeed="12.97" duration="77.00" routeLength="887.62" waitSteps="0" timeLoss="11.26" rerouteNo="0" devices="tripinfo_Togliatti_12_59" vType="passenger2b" speedFactor="1.00" vaporized=""/>
    <tripinfo id="XXI_Aprile_2_12" depart="42.00" departLane="13_1" departPos="0.00" departSpeed="0.00" departDelay="0.00" arrival="163.00" arrivalLane="77[1][1]_1" arrivalPos="462.81" arrivalSpeed="13.04" duration="121.00" routeLength="974.81" waitSteps="34" timeLoss="49.84" rerouteNo="0" devices="tripinfo_XXI_Aprile_2_12" vType="passenger3" speedFactor="1.00" vaporized=""/>
    <tripinfo id="Pepoli_8_44" depart="75.00" departLane="210_1" departPos="0.00" departSpeed="0.00" departDelay="0.00" arrival="164.00" arrivalLane="134b_1" arrivalPos="157.47" arrivalSpeed="13.05" duration="89.00" routeLength="687.57" waitSteps="23" timeLoss="38.49" rerouteNo="0" devices="tripinfo_Pepoli_8_44" vType="passenger3" speedFactor="1.00" vaporized=""/>
    <tripinfo id="Pepoli_10_4" depart="6.00" departLane="210_1" departPos="0.00" departSpeed="0.00" departDelay="0.00" arrival="165.00" arrivalLane="204[1][1]_1" arrivalPos="432.89" arrivalSpeed="12.89" duration="159.00" routeLength="1468.53" waitSteps="35" timeLoss="52.39" rerouteNo="0" devices="tripinfo_Pepoli_10_4" vType="passenger4" speedFactor="1.00" vaporized=""/>
    <tripinfo id="Pepoli_8_48" depart="82.00" departLane="210_1" departPos="0.00" departSpeed="0.00" departDelay="0.00" arrival="166.00" arrivalLane="134b_1" arrivalPos="157.47" arrivalSpeed="13.15" duration="84.00" routeLength="687.57" waitSteps="16" timeLoss="33.50" rerouteNo="0" devices="tripinfo_Pepoli_8_48" vType="passenger3" speedFactor="1.00" vaporized=""/>
    <tripinfo id="Pepoli_10_10" depart="17.00" departLane="210_1" departPos="0.00" departSpeed="0.00" departDelay="0.00" arrival="166.00" arrivalLane="204[1][1]_1" arrivalPos="432.89" arrivalSpeed="13.48" duration="149.00" routeLength="1468.53" waitSteps="26" timeLoss="43.20" rerouteNo="0" devices="tripinfo_Pepoli_10_10" vType="passenger1" speedFactor="1.00" vaporized=""/>
    <tripinfo id="Silvani_11_1" depart="2.00" departLane="203[0]_1" departPos="0.00" departSpeed="0.00" departDelay="0.00" arrival="168.00" arrivalLane="114_1" arrivalPos="692.01" arrivalSpeed="12.99" duration="166.00" routeLength="1109.50" waitSteps="72" timeLoss="85.58" rerouteNo="0" devices="tripinfo_Silvani_11_1" vType="passenger2b" speedFactor="1.00" vaporized=""/>
    <tripinfo id="Pepoli_8_51" depart="87.00" departLane="210_1" departPos="0.00" departSpeed="0.00" departDelay="0.00" arrival="169.00" arrivalLane="134b_1" arrivalPos="157.47" arrivalSpeed="13.12" duration="82.00" routeLength="687.57" waitSteps="10" timeLoss="31.54" rerouteNo="0" devices="tripinfo_Pepoli_8_51" vType="passenger3" speedFactor="1.00" vaporized=""/>
    <tripinfo id="Vittorio_Veneto_1_4" depart="18.00" departLane="224[0]_1" departPos="0.00" departSpeed="0.00" departDelay="0.00" arrival="170.00" arrivalLane="86_1" arrivalPos="320.48" arrivalSpeed="13.22" duration="152.00" routeLength="1138.57" waitSteps="54" timeLoss="68.93" rerouteNo="0" devices="tripinfo_Vittorio_Veneto_1_4" vType="passenger1" speedFactor="1.00" vaporized=""/>
    <tripinfo id="Pepoli_10_18" depart="30.00" departLane="210_1" departPos="0.00" departSpeed="0.00" departDelay="0.00" arrival="170.00" arrivalLane="204[1][1]_1" arrivalPos="432.89" arrivalSpeed="13.77" duration="140.00" routeLength="1468.53" waitSteps="18" timeLoss="33.38" rerouteNo="0" devices="tripinfo_Pepoli_10_18" vType="passenger1" speedFactor="1.00" vaporized=""/>
    <tripinfo id="Pepoli_10_20" depart="34.00" departLane="210_1" departPos="0.00" departSpeed="0.00" departDelay="0.00" arrival="172.00" arrivalLane="204[1][1]_1" arrivalPos="432.89" arrivalSpeed="13.46" duration="138.00" routeLength="1468.53" waitSteps="14" timeLoss="31.43" rerouteNo="0" devices="tripinfo_Pepoli_10_20" vType="passenger1" speedFactor="1.00" vaporized=""/>
    <tripinfo id="Silvani_11_8" depart="18.00" departLane="203[0]_1" departPos="0.00" departSpeed="0.00" departDelay="0.00" arrival="173.00" arrivalLane="114_1" arrivalPos="692.01" arrivalSpeed="13.03" duration="155.00" routeLength="1109.50" waitSteps="62" timeLoss="74.69" rerouteNo="0" devices="tripinfo_Silvani_11_8" vType="passenger1" speedFactor="1.00" vaporized=""/>
    <tripinfo id="Pepoli_8_62" depart="106.00" departLane="210_1" departPos="0.00" departSpeed="0.00" departDelay="0.00" arrival="174.00" arrivalLane="134b_1" arrivalPos="157.47" arrivalSpeed="13.15" duration="68.00" routeLength="687.57" waitSteps="0" timeLoss="17.35" rerouteNo="0" devices="tripinfo_Pepoli_8_62" vType="passenger1" speedFactor="1.00" vaporized=""/>
    <personinfo id="130" depart="52.00">
        <walk arrival="175.00"/>
    </personinfo>
    <personinfo id="339" depart="135.60">
        <walk arrival="175.00"/>
    </personinfo>
    <tripinfo id="Pepoli_10_11" depart="19.00" departLane="210_1" departPos="0.00" departSpeed="0.00" departDelay="1.00" arrival="175.00" arrivalLane="204[1][1]_1" arrivalPos="432.89" arrivalSpeed="12.69" duration="156.00" routeLength="1468.53" waitSteps="21" timeLoss="49.34" rerouteNo="0" devices="tripinfo_Pepoli_10_11" vType="passenger1" speedFactor="1.00" vaporized=""/>
    <tripinfo id="Silvani_11_9" depart="21.00" departLane="203[0]_1" departPos="0.00" departSpeed="0.00" departDelay="0.00" arrival="175.00" arrivalLane="114_1" arrivalPos="692.01" arrivalSpeed="12.60" duration="154.00" routeLength="1109.50" waitSteps="60" timeLoss="73.45" rerouteNo="0" devices="tripinfo_Silvani_11_9" vType="passenger3" speedFactor="1.00" vaporized=""/>
    <tripinfo id="Togliatti_71_0" depart="0.00" departLane="85_2" departPos="0.00" departSpeed="0.00" departDelay="0.00" arrival="176.00" arrivalLane="209_1" arrivalPos="392.51" arrivalSpeed="12.84" duration="176.00" routeLength="2028.53" waitSteps="12" timeLoss="28.90" rerouteNo="0" devices="tripinfo_Togliatti_71_0" vType="passenger2b" speedFactor="1.00" vaporized=""/>
    <tripinfo id="Silvani_11_12" depart="28.00" departLane="203[0]_1" departPos="0.00" departSpeed="0.00" departDelay="0.00" arrival="177.00" arrivalLane="114_1" arrivalPos="692.01" arrivalSpeed="12.74" duration="149.00" routeLength="1109.50" waitSteps="55" timeLoss="68.37" rerouteNo="0" devices="tripinfo_Silvani_11_12" vType="passenger2b" speedFactor="1.00" vaporized=""/>
    <tripinfo id="Costa_3_33" depart="91.00" departLane="78[0]_1" departPos="0.00" departSpeed="0.00" departDelay="5.00" arrival="178.00" arrivalLane="14_1" arrivalPos="85.59" arrivalSpeed="12.90" duration="87.00" routeLength="845.28" waitSteps="9" timeLoss="25.15" rerouteNo="0" devices="tripinfo_Costa_3_33" vType="passenger2b" speedFactor="1.00" vaporized=""/>
    <tripinfo id="Pepoli_8_70" depart="120.00" departLane="210_1" departPos="0.00" departSpeed="0.00" departDelay="0.00" arrival="178.00" arrivalLane="134b_1" arrivalPos="157.47" arrivalSpeed="13.51" duration="58.00" routeLength="687.57" waitSteps="1" timeLoss="7.69" rerouteNo="0" devices="tripinfo_Pepoli_8_70" vType="passenger2a" speedFactor="1.00" vaporized=""/>
    <tripinfo id="Pepoli_10_19" depart="32.00" departLane="210_2" departPos="0.00" departSpeed="0.00" departDelay="0.00" arrival="179.00" arrivalLane="204[1][1]_1" arrivalPos="432.89" arrivalSpeed="13.11" duration="147.00" routeLength="1468.53" waitSteps="15" timeLoss="40.46" rerouteNo="0" devices="tripinfo_Pepoli_10_19" vType="passenger2b" speedFactor="1.00" vaporized=""/>
    <tripinfo id="Silvani_11_13" depart="30.00" departLane="203[0]_1" departPos="0.00" departSpeed="0.00" departDelay="0.00" arrival="179.00" arrivalLane="114_1" arrivalPos="692.01" arrivalSpeed="13.43" duration="149.00" routeLength="1109.50" waitSteps="53" timeLoss="68.16" rerouteNo="0" devices="tripinfo_Silvani_11_13" vType="passenger1" speedFactor="1.00" vaporized=""/>
    <tripinfo id="Togliatti_3_18" depart="25.00" departLane="85_1" departPos="0.00" departSpeed="0.00" departDelay="0.00" arrival="180.00" arrivalLane="14_1" arrivalPos="85.59" arrivalSpeed="12.95" duration="155.00" routeLength="1101.66" waitSteps="56" timeLoss="74.15" rerouteNo="0" devices="tripinfo_Togliatti_3_18" vType="passenger1" speedFactor="1.00" vaporized=""/>
    <tripinfo id="Togliatti_3_31" depart="44.00" departLane="85_1" departPos="0.00" departSpeed="0.00" departDelay="0.00" arrival="181.00" arrivalLane="14_1" arrivalPos="85.59" arrivalSpeed="12.96" duration="137.00" routeLength="1101.66" waitSteps="34" timeLoss="56.85" rerouteNo="0" devices="tripinfo_Togliatti_3_31" vType="passenger2b" speedFactor="1.00" vaporized=""/>
    <tripinfo id="Silvani_11_14" depart="33.00" departLane="203[0]_1" departPos="0.00" departSpeed="0.00" departDelay="0.00" arrival="181.00" arrivalLane="114_2" arrivalPos="692.01" arrivalSpeed="13.00" duration="148.00" routeLength="1109.50" waitSteps="52" timeLoss="66.97" rerouteNo="0" devices="tripinfo_Silvani_11_14" vType="passenger1" speedFactor="1.00" vaporized=""/>
    <tripinfo id="Costa_3_38" depart="106.00" departLane="78[0]_1" departPos="0.00" departSpeed="0.00" departDelay="7.00" arrival="183.00" arrivalLane="14_1" arrivalPos="85.59" arrivalSpeed="12.85" duration="77.00" routeLength="845.28" waitSteps="1" timeLoss="15.40" rerouteNo="0" devices="tripinfo_Costa_3_38" vType="passenger1" speedFactor="1.00" vaporized=""/>
    <tripinfo id="Silvani_11_16" depart="37.00" departLane="203[0]_1" departPos="0.00" departSpeed="0.00" departDelay="0.00" arrival="183.00" arrivalLane="114_1" arrivalPos="692.01" arrivalSpeed="13.63" duration="146.00" routeLength="1109.50" waitSteps="50" timeLoss="64.90" rerouteNo="0" devices="tripinfo_Silvani_11_16" vType="passenger2a" speedFactor="1.00" vaporized=""/>
    <tripinfo id="Silvani_11_17" depart="40.00" departLane="203[0]_1" departPos="0.00" departSpeed="0.00" departDelay="0.00" arrival="184.00" arrivalLane="114_2" arrivalPos="692.01" arrivalSpeed="13.38" duration="144.00" routeLength="1109.50" waitSteps="50" timeLoss="63.15" rerouteNo="0" devices="tripinfo_Silvani_11_17" vType="passenger1" speedFactor="1.00" vaporized=""/>
    <tripinfo id="Togliatti_2_32" depart="46.00" departLane="85_1" departPos="0.00" departSpeed="0.00" departDelay="1.00" arrival="184.00" arrivalLane="77[1][1]_1" arrivalPos="462.81" arrivalSpeed="12.92" duration="138.00" routeLength="1140.91" waitSteps="33" timeLoss="54.30" rerouteNo="0" devices="tripinfo_Togliatti_2_32" vType="passenger5" speedFactor="1.00" vaporized=""/>
    <personinfo id="119" depart="47.60">
        <walk arrival="186.00"/>
    </personinfo>
    <tripinfo id="Togliatti_3_39" depart="55.00" departLane="85_1" departPos="0.00" departSpeed="0.00" departDelay="0.00" arrival="186.00" arrivalLane="14_1" arrivalPos="85.59" arrivalSpeed="13.80" duration="131.00" routeLength="1101.66" waitSteps="28" timeLoss="50.27" rerouteNo="0" devices="tripinfo_Togliatti_3_39" vType="passenger2b" speedFactor="1.00" vaporized=""/>
    <tripinfo id="Silvani_11_23" depart="54.00" departLane="203[0]_1" departPos="0.00" departSpeed="0.00" departDelay="0.00" arrival="186.00" arrivalLane="114_1" arrivalPos="692.01" arrivalSpeed="12.88" duration="132.00" routeLength="1109.50" waitSteps="36" timeLoss="50.92" rerouteNo="0" devices="tripinfo_Silvani_11_23" vType="passenger4" speedFactor="1.00" vaporized=""/>
    <tripinfo id="Vittorio_Veneto_1_10" depart="45.00" departLane="224[0]_1" departPos="0.00" departSpeed="0.00" departDelay="0.00" arrival="187.00" arrivalLane="86_1" arrivalPos="320.48" arrivalSpeed="13.35" duration="142.00" routeLength="1138.57" waitSteps="45" timeLoss="59.61" rerouteNo="0" devices="tripinfo_Vittorio_Veneto_1_10" vType="passenger1" speedFactor="1.00" vaporized=""/>
    <tripinfo id="Silvani_11_24" depart="57.00" departLane="203[0]_1" departPos="0.00" departSpeed="0.00" departDelay="1.00" arrival="187.00" arrivalLane="114_1" arrivalPos="692.01" arrivalSpeed="13.06" duration="130.00" routeLength="1109.50" waitSteps="35" timeLoss="49.68" rerouteNo="0" devices="tripinfo_Silvani_11_24" vType="passenger1" speedFactor="1.00" vaporized=""/>
    <personinfo id="422" depart="168.80">
        <walk arrival="188.00"/>
    </personinfo>
    <tripinfo id="Pepoli_8_75" depart="128.00" departLane="210_1" departPos="0.00" departSpeed="0.00" departDelay="0.00" arrival="188.00" arrivalLane="134b_1" arrivalPos="157.47" arrivalSpeed="12.59" duration="60.00" routeLength="687.57" waitSteps="0" timeLoss="9.40" rerouteNo="0" devices="tripinfo_Pepoli_8_75" vType="passenger2b" speedFactor="1.00" vaporized=""/>
    <personinfo id="355" depart="142.00">
        <walk arrival="189.00"/>
    </personinfo>
    <tripinfo id="Turati_10_0" depart="0.00" departLane="195_1" departPos="0.00" departSpeed="0.00" departDelay="0.00" arrival="189.00" arrivalLane="204[1][1]_1" arrivalPos="432.89" arrivalSpeed="12.72" duration="189.00" routeLength="2021.68" waitSteps="11" timeLoss="41.29" rerouteNo="0" devices="tripinfo_Turati_10_0" vType="passenger1" speedFactor="1.00" vaporized=""/>
    <tripinfo id="Silvani_11_27" depart="63.00" departLane="203[0]_1" departPos="0.00" departSpeed="0.00" departDelay="0.00" arrival="189.00" arrivalLane="114_1" arrivalPos="692.01" arrivalSpeed="13.19" duration="126.00" routeLength="1109.50" waitSteps="31" timeLoss="45.55" rerouteNo="0" devices="tripinfo_Silvani_11_27" vType="passenger1" speedFactor="1.00" vaporized=""/>
    <tripinfo id="Audinot_10_2" depart="42.00" departLane="131_1" departPos="0.00" departSpeed="0.00" departDelay="0.00" arrival="191.00" arrivalLane="204[1][1]_1" arrivalPos="432.89" arrivalSpeed="13.82" duration="149.00" routeLength="1642.90" waitSteps="9" timeLoss="29.50" rerouteNo="0" devices="tripinfo_Audinot_10_2" vType="passenger2b" speedFactor="1.00" vaporized=""/>
    <tripinfo id="Silvani_11_32" depart="76.00" departLane="203[0]_1" departPos="0.00" departSpeed="0.00" departDelay="1.00" arrival="191.00" arrivalLane="114_1" arrivalPos="692.01" arrivalSpeed="12.67" duration="115.00" routeLength="1109.50" waitSteps="21" timeLoss="34.38" rerouteNo="0" devices="tripinfo_Silvani_11_32" vType="passenger1" speedFactor="1.00" vaporized=""/>
    <tripinfo id="Vittorio_Veneto_1_12" depart="55.00" departLane="224[0]_1" departPos="0.00" departSpeed="0.00" departDelay="0.00" arrival="192.00" arrivalLane="86_1" arrivalPos="320.48" arrivalSpeed="13.28" duration="137.00" routeLength="1138.57" waitSteps="38" timeLoss="54.51" rerouteNo="0" devices="tripinfo_Vittorio_Veneto_1_12" vType="passenger2a" speedFactor="1.00" vaporized=""/>
    <tripinfo id="Pepoli_10_22" depart="37.00" departLane="210_2" departPos="0.00" departSpeed="0.00" departDelay="0.00" arrival="193.00" arrivalLane="204[1][1]_1" arrivalPos="432.89" arrivalSpeed="12.77" duration="156.00" routeLength="1468.53" waitSteps="26" timeLoss="49.96" rerouteNo="0" devices="tripinfo_Pepoli_10_22" vType="passenger2a" speedFactor="1.00" vaporized=""/>
    <tripinfo id="Togliatti_2_40" depart="57.00" departLane="85_1" departPos="0.00" departSpeed="0.00" departDelay="1.00" arrival="193.00" arrivalLane="77[1][1]_1" arrivalPos="462.81" arrivalSpeed="13.61" duration="136.00" routeLength="1140.91" waitSteps="27" timeLoss="52.70" rerouteNo="0" devices="tripinfo_Togliatti_2_40" vType="passenger2a" speedFactor="1.00" vaporized=""/>
    <tripinfo id="Silvani_11_33" depart="79.00" departLane="203[0]_1" departPos="0.00" departSpeed="0.00" departDelay="2.00" arrival="193.00" arrivalLane="114_1" arrivalPos="692.01" arrivalSpeed="13.81" duration="114.00" routeLength="1109.50" waitSteps="19" timeLoss="33.35" rerouteNo="0" devices="tripinfo_Silvani_11_33" vType="passenger1" speedFactor="1.00" vaporized=""/>
    <tripinfo id="Silvani_11_34" depart="81.00" departLane="203[0]_1" departPos="0.00" departSpeed="0.00" departDelay="1.00" arrival="195.00" arrivalLane="114_1" arrivalPos="692.01" arrivalSpeed="13.43" duration="114.00" routeLength="1109.50" waitSteps="16" timeLoss="32.91" rerouteNo="0" devices="tripinfo_Silvani_11_34" vType="passenger4" speedFactor="1.00" vaporized=""/>
    <tripinfo id="Silvani_11_39" depart="92.00" departLane="203[0]_1" departPos="0.00" departSpeed="0.00" departDelay="0.00" arrival="196.00" arrivalLane="114_2" arrivalPos="692.01" arrivalSpeed="13.36" duration="104.00" routeLength="1109.50" waitSteps="7" timeLoss="22.91" rerouteNo="0" devices="tripinfo_Silvani_11_39" vType="passenger5" speedFactor="1.00" vaporized=""/>
    <personinfo id="69" depart="27.60">
        <walk arrival="197.00"/>
    </personinfo>
    <tripinfo id="Togliatti_2_45" depart="64.00" departLane="85_1" departPos="0.00" departSpeed="0.00" departDelay="0.00" arrival="197.00" arrivalLane="77[1][1]_1" arrivalPos="462.81" arrivalSpeed="13.44" duration="133.00" routeLength="1140.91" waitSteps="23" timeLoss="50.07" rerouteNo="0" devices="tripinfo_Togliatti_2_45" vType="passenger3" speedFactor="1.00" vaporized=""/>
    <tripinfo id="Togliatti_3_56" depart="79.00" departLane="85_1" departPos="0.00" departSpeed="0.00" departDelay="0.00" arrival="198.00" arrivalLane="14_1" arrivalPos="85.59" arrivalSpeed="13.10" duration="119.00" routeLength="1101.66" waitSteps="13" timeLoss="38.93" rerouteNo="0" devices="tripinfo_Togliatti_3_56" vType="passenger1" speedFactor="1.00" vaporized=""/>
    <tripinfo id="Silvani_11_41" depart="96.00" departLane="203[0]_1" departPos="0.00" departSpeed="0.00" departDelay="0.00" arrival="198.00" arrivalLane="114_1" arrivalPos="692.01" arrivalSpeed="13.02" duration="102.00" routeLength="1109.50" waitSteps="5" timeLoss="21.12" rerouteNo="0" devices="tripinfo_Silvani_11_41" vType="passenger1" speedFactor="1.00" vaporized=""/>
    <tripinfo id="Turati_10_1" depart="34.00" departLane="195_1" departPos="0.00" departSpeed="0.00" departDelay="0.00" arrival="199.00" arrivalLane="204[1][1]_1" arrivalPos="432.89" arrivalSpeed="13.78" duration="165.00" routeLength="2021.68" waitSteps="0" timeLoss="17.01" rerouteNo="0" devices="tripinfo_Turati_10_1" vType="passenger2a" speedFactor="1.00" vaporized=""/>