<?xml version="1.0" encoding="UTF-8"?>

<!-- generated on lun 10 dic 2018 12:39:39 CST by SUMO gui Version 0.30.0
<?xml version="1.0" encoding="UTF-8"?>

<configuration xmlns:xsi="http://www.w3.org/2001/XMLSchema-instance" xsi:noNamespaceSchemaLocation="http://sumo.dlr.de/xsd/sumoConfiguration.xsd">

    <input>
        <net-file value="pasubio_buslanes.net.xml"/>
        <route-files value="pasubio.rou.xml"/>
        <additional-files value="pasubio_vtypes.add.xml,pasubio_bus_stops.add.xml,pasubio_busses.rou.xml,pasubio_detectors.add.xml,pasubio_tls.add.xml"/>
    </input>

    <output>
        <tripinfo-output value="tripinfos.xml"/>
    </output>

    <report>
        <log value="sumo_log.txt"/>
        <no-step-log value="true"/>
    </report>

</configuration>
-->

<tripinfos xmlns:xsi="http://www.w3.org/2001/XMLSchema-instance" xsi:noNamespaceSchemaLocation="http://sumo.dlr.de/xsd/tripinfo_file.xsd">
    <tripinfo id="Pertini_20_1" depart="2.00" departLane="63[0]_2" departPos="0.00" departSpeed="0.00" departDelay="0.00" arrival="74.00" arrivalLane="4[1][1][1]_1" arrivalPos="172.70" arrivalSpeed="13.64" duration="72.00" routeLength="889.67" waitSteps="0" timeLoss="7.81" rerouteNo="0" devices="tripinfo_Pertini_20_1" vType="passenger3" speedFactor="1.00" vaporized=""/>
    <tripinfo id="Pertini_20_0" depart="0.00" departLane="63[0]_2" departPos="0.00" departSpeed="0.00" departDelay="0.00" arrival="76.00" arrivalLane="4[1][1][1]_0" arrivalPos="172.70" arrivalSpeed="13.09" duration="76.00" routeLength="889.67" waitSteps="1" timeLoss="11.56" rerouteNo="0" devices="tripinfo_Pertini_20_0" vType="passenger2b" speedFactor="1.00" vaporized=""/>
    <tripinfo id="Pertini_20_2" depart="4.00" departLane="63[0]_1" departPos="0.00" departSpeed="0.00" departDelay="0.00" arrival="76.00" arrivalLane="4[1][1][1]_1" arrivalPos="172.70" arrivalSpeed="13.49" duration="72.00" routeLength="889.67" waitSteps="0" timeLoss="7.52" rerouteNo="0" devices="tripinfo_Pertini_20_2" vType="passenger1" speedFactor="1.00" vaporized=""/>
    <tripinfo id="Prati_Capraia_10_0" depart="0.00" departLane="3[0]_0" departPos="0.00" departSpeed="0.00" departDelay="0.00" arrival="79.00" arrivalLane="10_0" arrivalPos="226.64" arrivalSpeed="12.82" duration="79.00" routeLength="410.85" waitSteps="39" timeLoss="48.97" rerouteNo="0" devices="tripinfo_Prati_Capraia_10_0" vType="passenger1" speedFactor="1.00" vaporized=""/>
    <tripinfo id="Prati_Capraia_10_1" depart="4.00" departLane="3[0]_0" departPos="0.00" departSpeed="0.00" departDelay="0.00" arrival="81.00" arrivalLane="10_0" arrivalPos="226.64" arrivalSpeed="13.55" duration="77.00" routeLength="410.85" waitSteps="37" timeLoss="46.69" rerouteNo="0" devices="tripinfo_Prati_Capraia_10_1" vType="passenger1" speedFactor="1.00" vaporized=""/>
    <tripinfo id="Pertini_20_7" depart="15.00" departLane="63[0]_2" departPos="0.00" departSpeed="0.00" departDelay="0.00" arrival="86.00" arrivalLane="4[1][1][1]_0" arrivalPos="172.70" arrivalSpeed="13.09" duration="71.00" routeLength="889.67" waitSteps="0" timeLoss="6.12" rerouteNo="0" devices="tripinfo_Pertini_20_7" vType="passenger5" speedFactor="1.00" vaporized=""/>
    <tripinfo id="Prati_Capraia_10_7" depart="34.00" departLane="3[0]_0" departPos="0.00" departSpeed="0.00" departDelay="0.00" arrival="86.00" arrivalLane="10_0" arrivalPos="226.64" arrivalSpeed="13.63" duration="52.00" routeLength="410.85" waitSteps="10" timeLoss="21.83" rerouteNo="0" devices="tripinfo_Prati_Capraia_10_7" vType="passenger2b" speedFactor="1.00" vaporized=""/>
    <tripinfo id="Pertini_20_9" depart="19.00" departLane="63[0]_1" departPos="0.00" departSpeed="0.00" departDelay="0.00" arrival="90.00" arrivalLane="4[1][1][1]_0" arrivalPos="172.70" arrivalSpeed="13.74" duration="71.00" routeLength="889.67" waitSteps="0" timeLoss="6.16" rerouteNo="0" devices="tripinfo_Pertini_20_9" vType="passenger3" speedFactor="1.00" vaporized=""/>
    <tripinfo id="Pertini_20_10" depart="21.00" departLane="63[0]_2" departPos="0.00" departSpeed="0.00" departDelay="0.00" arrival="91.00" arrivalLane="4[1][1][1]_0" arrivalPos="172.70" arrivalSpeed="13.04" duration="70.00" routeLength="889.67" waitSteps="0" timeLoss="5.92" rerouteNo="0" devices="tripinfo_Pertini_20_10" vType="passenger2a" speedFactor="1.00" vaporized=""/>
    <tripinfo id="Pertini_20_11" depart="23.00" departLane="63[0]_1" departPos="0.00" departSpeed="0.00" departDelay="0.00" arrival="94.00" arrivalLane="4[1][1][1]_0" arrivalPos="172.70" arrivalSpeed="13.72" duration="71.00" routeLength="889.67" waitSteps="0" timeLoss="6.86" rerouteNo="0" devices="tripinfo_Pertini_20_11" vType="passenger4" speedFactor="1.00" vaporized=""/>
    <tripinfo id="Certosa_9_0" depart="0.00" departLane="22[0]_1" departPos="0.00" departSpeed="0.00" departDelay="0.00" arrival="95.00" arrivalLane="2[1][1][1]b_1" arrivalPos="323.28" arrivalSpeed="12.63" duration="95.00" routeLength="605.95" waitSteps="36" timeLoss="49.42" rerouteNo="0" devices="tripinfo_Certosa_9_0" vType="passenger3" speedFactor="1.00" vaporized=""/>
    <tripinfo id="Pertini_20_12" depart="25.00" departLane="63[0]_2" departPos="0.00" departSpeed="0.00" departDelay="0.00" arrival="97.00" arrivalLane="4[1][1][1]_0" arrivalPos="172.70" arrivalSpeed="13.44" duration="72.00" routeLength="889.67" waitSteps="0" timeLoss="7.15" rerouteNo="0" devices="tripinfo_Pertini_20_12" vType="passenger2b" speedFactor="1.00" vaporized=""/>
    <tripinfo id="Prati_Capraia_100_3" depart="14.00" departLane="3[0]_0" departPos="0.00" departSpeed="0.00" departDelay="0.00" arrival="99.00" arrivalLane="3[1]b_1" arrivalPos="241.22" arrivalSpeed="13.24" duration="85.00" routeLength="624.73" waitSteps="27" timeLoss="39.88" rerouteNo="0" devices="tripinfo_Prati_Capraia_100_3" vType="passenger1" speedFactor="1.00" vaporized=""/>
    <tripinfo id="Prati_Capraia_100_2" depart="9.00" departLane="3[0]_1" departPos="0.00" departSpeed="0.00" departDelay="0.00" arrival="99.00" arrivalLane="3[1]b_0" arrivalPos="241.22" arrivalSpeed="13.56" duration="90.00" routeLength="624.73" waitSteps="34" timeLoss="44.52" rerouteNo="0" devices="tripinfo_Prati_Capraia_100_2" vType="passenger2a" speedFactor="1.00" vaporized=""/>
    <tripinfo id="Pertini_20_14" depart="30.00" departLane="63[0]_1" departPos="0.00" departSpeed="0.00" departDelay="0.00" arrival="100.00" arrivalLane="4[1][1][1]_0" arrivalPos="172.70" arrivalSpeed="13.82" duration="70.00" routeLength="889.67" waitSteps="0" timeLoss="5.72" rerouteNo="0" devices="tripinfo_Pertini_20_14" vType="passenger1" speedFactor="1.00" vaporized=""/>
    <tripinfo id="Prati_Capraia_100_4" depart="19.00" departLane="3[0]_1" departPos="0.00" departSpeed="0.00" departDelay="0.00" arrival="101.00" arrivalLane="3[1]b_1" arrivalPos="241.22" arrivalSpeed="12.99" duration="82.00" routeLength="624.73" waitSteps="26" timeLoss="36.68" rerouteNo="0" devices="tripinfo_Prati_Capraia_100_4" vType="passenger2b" speedFactor="1.00" vaporized=""/>
    <tripinfo id="Prati_Capraia_100_5" depart="24.00" departLane="3[0]_0" departPos="0.00" departSpeed="0.00" departDelay="0.00" arrival="101.00" arrivalLane="3[1]b_0" arrivalPos="241.22" arrivalSpeed="13.38" duration="77.00" routeLength="624.73" waitSteps="20" timeLoss="31.33" rerouteNo="0" devices="tripinfo_Prati_Capraia_100_5" vType="passenger1" speedFactor="1.00" vaporized=""/>
    <tripinfo id="Gandhi_80_11" depart="17.00" departLane="1[0]_0" departPos="0.00" departSpeed="0.00" departDelay="0.00" arrival="102.00" arrivalLane="21_0" arrivalPos="103.70" arrivalSpeed="13.34" duration="85.00" routeLength="515.76" waitSteps="37" timeLoss="47.63" rerouteNo="0" devices="tripinfo_Gandhi_80_11" vType="passenger1" speedFactor="1.00" vaporized=""/>
    <tripinfo id="Pertini_20_15" depart="32.00" departLane="63[0]_2" departPos="0.00" departSpeed="0.00" departDelay="0.00" arrival="103.00" arrivalLane="4[1][1][1]_0" arrivalPos="172.70" arrivalSpeed="12.70" duration="71.00" routeLength="889.67" waitSteps="0" timeLoss="6.44" rerouteNo="0" devices="tripinfo_Pertini_20_15" vType="passenger2a" speedFactor="1.00" vaporized=""/>
    <tripinfo id="Pertini_20_16" depart="34.00" departLane="63[0]_1" departPos="0.00" departSpeed="0.00" departDelay="0.00" arrival="104.00" arrivalLane="4[1][1][1]_1" arrivalPos="172.70" arrivalSpeed="12.82" duration="70.00" routeLength="889.67" waitSteps="0" timeLoss="5.75" rerouteNo="0" devices="tripinfo_Pertini_20_16" vType="passenger2a" speedFactor="1.00" vaporized=""/>
    <tripinfo id="Prati_Capraia_100_9" depart="43.00" departLane="3[0]_0" departPos="0.00" departSpeed="0.00" departDelay="0.00" arrival="104.00" arrivalLane="3[1]b_1" arrivalPos="241.22" arrivalSpeed="12.76" duration="61.00" routeLength="624.73" waitSteps="1" timeLoss="15.19" rerouteNo="0" devices="tripinfo_Prati_Capraia_100_9" vType="passenger2a" speedFactor="1.00" vaporized=""/>
    <tripinfo id="Prati_Capraia_100_8" depart="38.00" departLane="3[0]_1" departPos="0.00" departSpeed="0.00" departDelay="0.00" arrival="104.00" arrivalLane="3[1]b_0" arrivalPos="241.22" arrivalSpeed="12.89" duration="66.00" routeLength="624.73" waitSteps="9" timeLoss="20.77" rerouteNo="0" devices="tripinfo_Prati_Capraia_100_8" vType="passenger4" speedFactor="1.00" vaporized=""/>
    <tripinfo id="Prati_Capraia_100_10" depart="48.00" departLane="3[0]_1" departPos="0.00" departSpeed="0.00" departDelay="0.00" arrival="106.00" arrivalLane="3[1]b_1" arrivalPos="241.22" arrivalSpeed="13.68" duration="58.00" routeLength="624.73" waitSteps="1" timeLoss="12.26" rerouteNo="0" devices="tripinfo_Prati_Capraia_100_10" vType="passenger1" speedFactor="1.00" vaporized=""/>
    <tripinfo id="Prati_Capraia_100_11" depart="53.00" departLane="3[0]_0" departPos="0.00" departSpeed="0.00" departDelay="0.00" arrival="106.00" arrivalLane="3[1]b_0" arrivalPos="241.22" arrivalSpeed="13.54" duration="53.00" routeLength="624.73" waitSteps="0" timeLoss="7.96" rerouteNo="0" devices="tripinfo_Prati_Capraia_100_11" vType="passenger2a" speedFactor="1.00" vaporized=""/>
    <tripinfo id="Pertini_20_17" depart="36.00" departLane="63[0]_2" departPos="0.00" departSpeed="0.00" departDelay="0.00" arrival="106.00" arrivalLane="4[1][1][1]_0" arrivalPos="172.70" arrivalSpeed="13.48" duration="70.00" routeLength="889.67" waitSteps="0" timeLoss="5.81" rerouteNo="0" devices="tripinfo_Pertini_20_17" vType="passenger2a" speedFactor="1.00" vaporized=""/>
    <tripinfo id="Pertini_20_18" depart="38.00" departLane="63[0]_1" departPos="0.00" departSpeed="0.00" departDelay="0.00" arrival="108.00" arrivalLane="4[1][1][1]_0" arrivalPos="172.70" arrivalSpeed="13.41" duration="70.00" routeLength="889.67" waitSteps="0" timeLoss="5.83" rerouteNo="0" devices="tripinfo_Pertini_20_18" vType="passenger2b" speedFactor="1.00" vaporized=""/>
    <tripinfo id="Prati_Capraia_100_12" depart="58.00" departLane="3[0]_1" departPos="0.00" departSpeed="0.00" departDelay="0.00" arrival="109.00" arrivalLane="3[1]b_0" arrivalPos="241.22" arrivalSpeed="12.90" duration="51.00" routeLength="624.73" waitSteps="0" timeLoss="5.63" rerouteNo="0" devices="tripinfo_Prati_Capraia_100_12" vType="passenger4" speedFactor="1.00" vaporized=""/>
    <tripinfo id="Pertini_20_19" depart="40.00" departLane="63[0]_2" departPos="0.00" departSpeed="0.00" departDelay="0.00" arrival="110.00" arrivalLane="4[1][1][1]_0" arrivalPos="172.70" arrivalSpeed="13.24" duration="70.00" routeLength="889.67" waitSteps="0" timeLoss="5.91" rerouteNo="0" devices="tripinfo_Pertini_20_19" vType="passenger3" speedFactor="1.00" vaporized=""/>
    <tripinfo id="Prati_Capraia_100_13" depart="63.00" departLane="3[0]_0" departPos="0.00" departSpeed="0.00" departDelay="0.00" arrival="114.00" arrivalLane="3[1]b_0" arrivalPos="241.22" arrivalSpeed="13.25" duration="51.00" routeLength="624.73" waitSteps="0" timeLoss="5.11" rerouteNo="0" devices="tripinfo_Prati_Capraia_100_13" vType="passenger4" speedFactor="1.00" vaporized=""/>
    <tripinfo id="Saffi_30_4" depart="11.00" departLane="12_0" departPos="0.00" departSpeed="0.00" departDelay="0.00" arrival="115.00" arrivalLane="70_0" arrivalPos="61.95" arrivalSpeed="12.67" duration="104.00" routeLength="1146.38" waitSteps="7" timeLoss="20.96" rerouteNo="0" devices="tripinfo_Saffi_30_4" vType="passenger1" speedFactor="1.00" vaporized=""/>
    <tripinfo id="Pertini_20_21" depart="45.00" departLane="63[0]_1" departPos="0.00" departSpeed="0.00" departDelay="0.00" arrival="116.00" arrivalLane="4[1][1][1]_0" arrivalPos="172.70" arrivalSpeed="12.60" duration="71.00" routeLength="889.67" waitSteps="0" timeLoss="6.18" rerouteNo="0" devices="tripinfo_Pertini_20_21" vType="passenger1" speedFactor="1.00" vaporized=""/>
    <tripinfo id="Prati_Capraia_100_14" depart="68.00" departLane="3[0]_1" departPos="0.00" departSpeed="0.00" departDelay="0.00" arrival="118.00" arrivalLane="3[1]b_0" arrivalPos="241.22" arrivalSpeed="13.62" duration="50.00" routeLength="624.73" waitSteps="0" timeLoss="4.61" rerouteNo="0" devices="tripinfo_Prati_Capraia_100_14" vType="passenger2a" speedFactor="1.00" vaporized=""/>
    <tripinfo id="Pertini_20_22" depart="47.00" departLane="63[0]_2" departPos="0.00" departSpeed="0.00" departDelay="0.00" arrival="118.00" arrivalLane="4[1][1][1]_0" arrivalPos="172.70" arrivalSpeed="12.88" duration="71.00" routeLength="889.67" waitSteps="0" timeLoss="6.76" rerouteNo="0" devices="tripinfo_Pertini_20_22" vType="passenger1" speedFactor="1.00" vaporized=""/>
    <tripinfo id="Pertini_10_20" depart="43.00" departLane="63[0]_2" departPos="0.00" departSpeed="0.00" departDelay="0.00" arrival="119.00" arrivalLane="10_0" arrivalPos="226.64" arrivalSpeed="13.02" duration="76.00" routeLength="932.82" waitSteps="0" timeLoss="7.92" rerouteNo="0" devices="tripinfo_Pertini_10_20" vType="passenger1" speedFactor="1.00" vaporized=""/>
    <tripinfo id="Sabotino_9_0" depart="0.00" departLane="41_0" departPos="0.00" departSpeed="0.00" departDelay="0.00" arrival="120.00" arrivalLane="2[1][1][1]b_0" arrivalPos="323.28" arrivalSpeed="13.06" duration="120.00" routeLength="1125.60" waitSteps="25" timeLoss="38.17" rerouteNo="0" devices="tripinfo_Sabotino_9_0" vType="passenger3" speedFactor="1.00" vaporized=""/>
    <tripinfo id="Sabotino_9_1" depart="9.00" departLane="41_0" departPos="0.00" departSpeed="0.00" departDelay="0.00" arrival="121.00" arrivalLane="2[1][1][1]b_1" arrivalPos="323.28" arrivalSpeed="13.46" duration="112.00" routeLength="1125.60" waitSteps="17" timeLoss="30.43" rerouteNo="0" devices="tripinfo_Sabotino_9_1" vType="passenger2b" speedFactor="1.00" vaporized=""/>
    <tripinfo id="Gandhi_80_45" depart="70.00" departLane="1[0]_0" departPos="0.00" departSpeed="0.00" departDelay="0.00" arrival="122.00" arrivalLane="21_0" arrivalPos="103.70" arrivalSpeed="13.65" duration="52.00" routeLength="515.76" waitSteps="2" timeLoss="14.39" rerouteNo="0" devices="tripinfo_Gandhi_80_45" vType="passenger1" speedFactor="1.00" vaporized=""/>
    <tripinfo id="Sabotino_9_2" depart="18.00" departLane="41_0" departPos="0.00" departSpeed="0.00" departDelay="0.00" arrival="123.00" arrivalLane="2[1][1][1]b_0" arrivalPos="323.28" arrivalSpeed="13.42" duration="105.00" routeLength="1125.60" waitSteps="10" timeLoss="23.16" rerouteNo="0" devices="tripinfo_Sabotino_9_2" vType="passenger1" speedFactor="1.00" vaporized=""/>
    <tripinfo id="Sabotino_9_3" depart="27.00" departLane="41_0" departPos="0.00" departSpeed="0.00" departDelay="0.00" arrival="124.00" arrivalLane="2[1][1][1]b_1" arrivalPos="323.28" arrivalSpeed="13.84" duration="97.00" routeLength="1125.60" waitSteps="2" timeLoss="15.61" rerouteNo="0" devices="tripinfo_Sabotino_9_3" vType="passenger5" speedFactor="1.00" vaporized=""/>
    <tripinfo id="Pertini_20_25" depart="53.00" departLane="63[0]_1" departPos="0.00" departSpeed="0.00" departDelay="0.00" arrival="125.00" arrivalLane="4[1][1][1]_0" arrivalPos="172.70" arrivalSpeed="13.45" duration="72.00" routeLength="889.67" waitSteps="0" timeLoss="7.12" rerouteNo="0" devices="tripinfo_Pertini_20_25" vType="passenger1" speedFactor="1.00" vaporized=""/>
    <tripinfo id="Pertini_20_26" depart="55.00" departLane="63[0]_2" departPos="0.00" departSpeed="0.00" departDelay="0.00" arrival="126.00" arrivalLane="4[1][1][1]_1" arrivalPos="172.70" arrivalSpeed="13.84" duration="71.00" routeLength="889.67" waitSteps="0" timeLoss="6.00" rerouteNo="0" devices="tripinfo_Pertini_20_26" vType="passenger3" speedFactor="1.00" vaporized=""/>
    <tripinfo id="Sabotino_9_4" depart="36.00" departLane="41_0" departPos="0.00" departSpeed="0.00" departDelay="0.00" arrival="126.00" arrivalLane="2[1][1][1]b_0" arrivalPos="323.28" arrivalSpeed="13.18" duration="90.00" routeLength="1125.60" waitSteps="0" timeLoss="8.74" rerouteNo="0" devices="tripinfo_Sabotino_9_4" vType="passenger2a" speedFactor="1.00" vaporized=""/>
    <tripinfo id="Prati_Capraia_10_19" depart="92.00" departLane="3[0]_0" departPos="0.00" departSpeed="0.00" departDelay="0.00" arrival="126.00" arrivalLane="10_0" arrivalPos="226.64" arrivalSpeed="13.70" duration="34.00" routeLength="410.85" waitSteps="0" timeLoss="4.19" rerouteNo="0" devices="tripinfo_Prati_Capraia_10_19" vType="passenger2b" speedFactor="1.00" vaporized=""/>
    <tripinfo id="Prati_Capraia_100_16" depart="77.00" departLane="3[0]_0" departPos="0.00" departSpeed="0.00" departDelay="0.00" arrival="128.00" arrivalLane="3[1]b_0" arrivalPos="241.22" arrivalSpeed="12.87" duration="51.00" routeLength="624.73" waitSteps="0" timeLoss="5.68" rerouteNo="0" devices="tripinfo_Prati_Capraia_100_16" vType="passenger1" speedFactor="1.00" vaporized=""/>
    <tripinfo id="Pertini_20_27" depart="58.00" departLane="63[0]_1" departPos="0.00" departSpeed="0.00" departDelay="0.00" arrival="129.00" arrivalLane="4[1][1][1]_0" arrivalPos="172.70" arrivalSpeed="13.24" duration="71.00" routeLength="889.67" waitSteps="0" timeLoss="6.32" rerouteNo="0" devices="tripinfo_Pertini_20_27" vType="passenger5" speedFactor="1.00" vaporized=""/>
    <tripinfo id="Pertini_20_28" depart="60.00" departLane="63[0]_2" departPos="0.00" departSpeed="0.00" departDelay="0.00" arrival="131.00" arrivalLane="4[1][1][1]_0" arrivalPos="172.70" arrivalSpeed="13.53" duration="71.00" routeLength="889.67" waitSteps="0" timeLoss="6.73" rerouteNo="0" devices="tripinfo_Pertini_20_28" vType="passenger1" speedFactor="1.00" vaporized=""/>
    <tripinfo id="Sabotino_9_5" depart="45.00" departLane="41_0" departPos="0.00" departSpeed="0.00" departDelay="0.00" arrival="133.00" arrivalLane="2[1][1][1]b_0" arrivalPos="323.28" arrivalSpeed="12.71" duration="88.00" routeLength="1125.60" waitSteps="0" timeLoss="6.39" rerouteNo="0" devices="tripinfo_Sabotino_9_5" vType="passenger3" speedFactor="1.00" vaporized=""/>
    <tripinfo id="Prati_Capraia_100_17" depart="82.00" departLane="3[0]_1" departPos="0.00" departSpeed="0.00" departDelay="0.00" arrival="133.00" arrivalLane="3[1]b_0" arrivalPos="241.22" arrivalSpeed="12.79" duration="51.00" routeLength="624.73" waitSteps="0" timeLoss="5.14" rerouteNo="0" devices="tripinfo_Prati_Capraia_100_17" vType="passenger2b" speedFactor="1.00" vaporized=""/>
    <tripinfo id="Montefiorino_60_7" depart="28.00" departLane="43_0" departPos="0.00" departSpeed="0.00" departDelay="0.00" arrival="136.00" arrivalLane="40[1]_0" arrivalPos="498.82" arrivalSpeed="12.81" duration="108.00" routeLength="1022.94" waitSteps="23" timeLoss="33.87" rerouteNo="0" devices="tripinfo_Montefiorino_60_7" vType="passenger1" speedFactor="1.00" vaporized=""/>
    <tripinfo id="Prati_Capraia_100_18" depart="87.00" departLane="3[0]_0" departPos="0.00" departSpeed="0.00" departDelay="0.00" arrival="137.00" arrivalLane="3[1]b_0" arrivalPos="241.22" arrivalSpeed="13.03" duration="50.00" routeLength="624.73" waitSteps="0" timeLoss="4.59" rerouteNo="0" devices="tripinfo_Prati_Capraia_100_18" vType="passenger3" speedFactor="1.00" vaporized=""/>
    <tripinfo id="Borgo_20_3" depart="18.00" departLane="6_1" departPos="0.00" departSpeed="0.00" departDelay="0.00" arrival="146.00" arrivalLane="4[1][1][1]_1" arrivalPos="172.70" arrivalSpeed="12.63" duration="128.00" routeLength="542.69" waitSteps="76" timeLoss="87.35" rerouteNo="0" devices="tripinfo_Borgo_20_3" vType="passenger1" speedFactor="1.00" vaporized=""/>
    <tripinfo id="Borgo_20_4" depart="24.00" departLane="6_1" departPos="0.00" departSpeed="0.00" departDelay="0.00" arrival="147.00" arrivalLane="4[1][1][1]_1" arrivalPos="172.70" arrivalSpeed="13.79" duration="123.00" routeLength="542.69" waitSteps="73" timeLoss="83.12" rerouteNo="0" devices="tripinfo_Borgo_20_4" vType="passenger1" speedFactor="1.00" vaporized=""/>
    <tripinfo id="Borgo_20_6" depart="36.00" departLane="6_1" departPos="0.00" departSpeed="0.00" departDelay="0.00" arrival="149.00" arrivalLane="4[1][1][1]_1" arrivalPos="172.70" arrivalSpeed="13.55" duration="113.00" routeLength="542.69" waitSteps="61" timeLoss="72.95" rerouteNo="0" devices="tripinfo_Borgo_20_6" vType="passenger3" speedFactor="1.00" vaporized=""/>
    <tripinfo id="Borgo_20_7" depart="42.00" departLane="6_1" departPos="0.00" departSpeed="0.00" departDelay="0.00" arrival="151.00" arrivalLane="4[1][1][1]_1" arrivalPos="172.70" arrivalSpeed="12.97" duration="109.00" routeLength="542.69" waitSteps="57" timeLoss="68.91" rerouteNo="0" devices="tripinfo_Borgo_20_7" vType="passenger2b" speedFactor="1.00" vaporized=""/>
    <tripinfo id="Nigrisoli_50_6" depart="37.00" departLane="65_0" departPos="0.00" departSpeed="0.00" departDelay="0.00" arrival="152.00" arrivalLane="35[1][1][1][1]_0" arrivalPos="260.17" arrivalSpeed="13.02" duration="115.00" routeLength="1145.07" waitSteps="18" timeLoss="30.44" rerouteNo="0" devices="tripinfo_Nigrisoli_50_6" vType="ignoring1" speedFactor="1.00" vaporized=""/>
    <tripinfo id="Borgo_20_9" depart="54.00" departLane="6_1" departPos="0.00" departSpeed="0.00" departDelay="0.00" arrival="155.00" arrivalLane="4[1][1][1]_1" arrivalPos="172.70" arrivalSpeed="12.65" duration="101.00" routeLength="542.69" waitSteps="47" timeLoss="60.99" rerouteNo="0" devices="tripinfo_Borgo_20_9" vType="passenger2b" speedFactor="1.00" vaporized=""/>
    <tripinfo id="Gandhi_70_32" depart="50.00" departLane="1[0]_0" departPos="0.00" departSpeed="0.00" departDelay="0.00" arrival="158.00" arrivalLane="44_0" arrivalPos="124.60" arrivalSpeed="13.78" duration="108.00" routeLength="1080.38" waitSteps="15" timeLoss="29.46" rerouteNo="0" devices="tripinfo_Gandhi_70_32" vType="passenger3" speedFactor="1.00" vaporized=""/>
    <tripinfo id="Borgo_20_13" depart="79.00" departLane="6_1" departPos="0.00" departSpeed="0.00" departDelay="0.00" arrival="159.00" arrivalLane="4[1][1][1]_1" arrivalPos="172.70" arrivalSpeed="13.10" duration="80.00" routeLength="542.69" waitSteps="27" timeLoss="39.34" rerouteNo="0" devices="tripinfo_Borgo_20_13" vType="passenger1" speedFactor="1.00" vaporized=""/>
    <tripinfo id="Borgo_100_0" depart="0.00" departLane="6_0" departPos="0.00" departSpeed="0.00" departDelay="0.00" arrival="160.00" arrivalLane="3[1]b_0" arrivalPos="241.22" arrivalSpeed="13.83" duration="160.00" routeLength="798.33" waitSteps="90" timeLoss="102.14" rerouteNo="0" devices="tripinfo_Borgo_100_0" vType="passenger4" speedFactor="1.00" vaporized=""/>
    <tripinfo id="Borgo_100_2" depart="12.00" departLane="6_0" departPos="0.00" departSpeed="0.00" departDelay="0.00" arrival="162.00" arrivalLane="3[1]b_0" arrivalPos="241.22" arrivalSpeed="13.38" duration="150.00" routeLength="798.33" waitSteps="82" timeLoss="91.98" rerouteNo="0" devices="tripinfo_Borgo_100_2" vType="passenger3" speedFactor="1.00" vaporized=""/>
    <tripinfo id="Borgo_100_8" depart="48.00" departLane="6_0" departPos="0.00" departSpeed="0.00" departDelay="0.00" arrival="164.00" arrivalLane="3[1]b_0" arrivalPos="241.22" arrivalSpeed="13.36" duration="116.00" routeLength="798.33" waitSteps="46" timeLoss="57.59" rerouteNo="0" devices="tripinfo_Borgo_100_8" vType="passenger4" speedFactor="1.00" vaporized=""/>
    <tripinfo id="Borgo_100_11" depart="66.00" departLane="6_0" departPos="0.00" departSpeed="0.00" departDelay="0.00" arrival="166.00" arrivalLane="3[1]b_0" arrivalPos="241.22" arrivalSpeed="13.41" duration="100.00" routeLength="798.33" waitSteps="29" timeLoss="41.64" rerouteNo="0" devices="tripinfo_Borgo_100_11" vType="passenger3" speedFactor="1.00" vaporized=""/>
    <tripinfo id="Pertini_102_24" depart="55.00" departLane="13[0]_0" departPos="0.00" departSpeed="0.00" departDelay="4.00" arrival="166.00" arrivalLane="29[0]_0" arrivalPos="132.42" arrivalSpeed="13.76" duration="111.00" routeLength="813.30" waitSteps="29" timeLoss="51.18" rerouteNo="0" devices="tripinfo_Pertini_102_24" vType="passenger4" speedFactor="1.00" vaporized=""/>
    <tripinfo id="Borgo_100_12" depart="72.00" departLane="6_0" departPos="0.00" departSpeed="0.00" departDelay="0.00" arrival="167.00" arrivalLane="3[1]b_0" arrivalPos="241.22" arrivalSpeed="13.35" duration="95.00" routeLength="798.33" waitSteps="24" timeLoss="37.35" rerouteNo="0" devices="tripinfo_Borgo_100_12" vType="passenger3" speedFactor="1.00" vaporized=""/>
    <tripinfo id="Borgo_100_15" depart="91.00" departLane="6_0" departPos="0.00" departSpeed="0.00" departDelay="0.00" arrival="170.00" arrivalLane="3[1]b_0" arrivalPos="241.22" arrivalSpeed="13.88" duration="79.00" routeLength="798.33" waitSteps="7" timeLoss="20.56" rerouteNo="0" devices="tripinfo_Borgo_100_15" vType="passenger1" speedFactor="1.00" vaporized=""/>
    <tripinfo id="Saffi_10_1" depart="4.00" departLane="12_0" departPos="0.00" departSpeed="0.00" departDelay="2.00" arrival="173.00" arrivalLane="10_0" arrivalPos="226.64" arrivalSpeed="12.89" duration="169.00" routeLength="1852.34" waitSteps="17" timeLoss="35.17" rerouteNo="0" devices="tripinfo_Saffi_10_1" vType="passenger1" speedFactor="1.00" vaporized=""/>
    <tripinfo id="Nigrisoli_90_7" depart="43.00" departLane="65_0" departPos="0.00" departSpeed="0.00" departDelay="0.00" arrival="176.00" arrivalLane="2[1][1][1]b_0" arrivalPos="323.28" arrivalSpeed="12.71" duration="133.00" routeLength="1433.78" waitSteps="14" timeLoss="29.20" rerouteNo="0" devices="tripinfo_Nigrisoli_90_7" vType="passenger3" speedFactor="1.00" vaporized=""/>
    <tripinfo id="Certosa_9_3" depart="109.00" departLane="22[0]_1" departPos="0.00" departSpeed="0.00" departDelay="0.00" arrival="184.00" arrivalLane="2[1][1][1]b_1" arrivalPos="323.28" arrivalSpeed="12.78" duration="75.00" routeLength="605.95" waitSteps="18" timeLoss="30.06" rerouteNo="0" devices="tripinfo_Certosa_9_3" vType="passenger1" speedFactor="1.00" vaporized=""/>
    <tripinfo id="Malvasia_10_6" depart="29.00" departLane="52_0" departPos="0.00" departSpeed="0.00" departDelay="0.00" arrival="185.00" arrivalLane="10_0" arrivalPos="226.64" arrivalSpeed="12.68" duration="156.00" routeLength="1667.28" waitSteps="13" timeLoss="35.37" rerouteNo="0" devices="tripinfo_Malvasia_10_6" vType="passenger1" speedFactor="1.00" vaporized=""/>
    <tripinfo id="Saffi_103_2" depart="5.00" departLane="12_1" departPos="0.00" departSpeed="0.00" departDelay="0.00" arrival="188.00" arrivalLane="3[1]b_1" arrivalPos="241.22" arrivalSpeed="13.68" duration="183.00" routeLength="2038.69" waitSteps="12" timeLoss="35.34" rerouteNo="0" devices="tripinfo_Saffi_103_2" vType="passenger4" speedFactor="1.00" vaporized=""/>
    <tripinfo id="Saffi_103_0" depart="0.00" departLane="12_1" departPos="0.00" departSpeed="0.00" departDelay="0.00" arrival="188.00" arrivalLane="3[1]b_0" arrivalPos="241.22" arrivalSpeed="13.33" duration="188.00" routeLength="2038.69" waitSteps="19" timeLoss="40.30" rerouteNo="0" devices="tripinfo_Saffi_103_0" vType="passenger1" speedFactor="1.00" vaporized=""/>
    <tripinfo id="Malvasia_100_2" depart="9.00" departLane="52_0" departPos="0.00" departSpeed="0.00" departDelay="0.00" arrival="190.00" arrivalLane="3[1]b_0" arrivalPos="241.22" arrivalSpeed="13.75" duration="181.00" routeLength="1853.63" waitSteps="26" timeLoss="46.79" rerouteNo="0" devices="tripinfo_Malvasia_100_2" vType="passenger4" speedFactor="1.00" vaporized=""/>
    <tripinfo id="Malvasia_100_3" depart="14.00" departLane="52_0" departPos="0.00" departSpeed="0.00" departDelay="0.00" arrival="193.00" arrivalLane="3[1]b_0" arrivalPos="241.22" arrivalSpeed="13.36" duration="179.00" routeLength="1853.63" waitSteps="21" timeLoss="44.20" rerouteNo="0" devices="tripinfo_Malvasia_100_3" vType="passenger1" speedFactor="1.00" vaporized=""/>
    <tripinfo id="Malvasia_100_5" depart="24.00" departLane="52_0" departPos="0.00" departSpeed="0.00" departDelay="0.00" arrival="196.00" arrivalLane="3[1]b_0" arrivalPos="241.22" arrivalSpeed="13.73" duration="172.00" routeLength="1853.63" waitSteps="15" timeLoss="36.90" rerouteNo="0" devices="tripinfo_Malvasia_100_5" vType="passenger2b" speedFactor="1.00" vaporized=""/>
    <tripinfo id="Malvasia_30_15" depart="72.00" departLane="52_0" departPos="0.00" departSpeed="0.00" departDelay="0.00" arrival="196.00" arrivalLane="70_0" arrivalPos="61.95" arrivalSpeed="12.60" duration="124.00" routeLength="961.32" waitSteps="35" timeLoss="54.09" rerouteNo="0" devices="tripinfo_Malvasia_30_15" vType="passenger2a" speedFactor="1.00" vaporized=""/>
    <tripinfo id="Malvasia_100_9" depart="43.00" departLane="52_0" departPos="0.00" departSpeed="0.00" departDelay="0.00" arrival="197.00" arrivalLane="3[1]b_1" arrivalPos="241.22" arrivalSpeed="12.83" duration="154.00" routeLength="1853.63" waitSteps="1" timeLoss="19.17" rerouteNo="0" devices="tripinfo_Malvasia_100_9" vType="passenger1" speedFactor="1.00" vaporized=""/>
    <tripinfo id="Pertini_20_31" depart="66.00" departLane="63[0]_2" departPos="0.00" departSpeed="0.00" departDelay="0.00" arrival="199.00" arrivalLane="4[1][1][1]_1" arrivalPos="172.70" arrivalSpeed="13.73" duration="133.00" routeLength="889.67" waitSteps="57" timeLoss="68.57" rerouteNo="0" devices="tripinfo_Pertini_20_31" vType="passenger5" speedFactor="1.00" vaporized=""/>